/*--------------------------------*- C++ -*----------------------------------*\
| =========                 |                                                 |
| \\      /  F ield         | OpenFOAM: The Open Source CFD Toolbox           |
|  \\    /   O peration     | Version:  plus                                  |
|   \\  /    A nd           | Web:      www.OpenFOAM.com                      |
|    \\/     M anipulation  |                                                 |
\*---------------------------------------------------------------------------*/
FoamFile
{
    version     2.0;
    format      ascii;
    class       volScalarField;
    object      p_rgh;
}
// * * * * * * * * * * * * * * * * * * * * * * * * * * * * * * * * * * * * * //

dimensions      [1 -1 -2 0 0 0 0];

internalField uniform 0;

boundaryField
{
    walls
    {
        type            zeroGradient;
    }

    plexi
    {
        type            zeroGradient;
    }

    symm
    {
        type            symmetry;
    }

    inlet
    {
        type            fixedFluxPressure;
    }

    outlet
    {
        type            fixedValue;
        value           uniform 1e5;
    }
}

// ************************************************************************* //
