/*--------------------------------*- C++ -*----------------------------------*\
| =========                 |                                                 |
| \\      /  F ield         | OpenFOAM: The Open Source CFD Toolbox           |
|  \\    /   O peration     | Version:  plus                                  |
|   \\  /    A nd           | Web:      www.OpenFOAM.com                      |
|    \\/     M anipulation  |                                                 |
\*---------------------------------------------------------------------------*/
FoamFile
{
    version     2.0;
    format      ascii;
    class       volScalarField;
    object      T.water;
}
// * * * * * * * * * * * * * * * * * * * * * * * * * * * * * * * * * * * * * //

dimensions      [0 0 0 1 0 0 0];
internalField uniform 375.15;

boundaryField
{
    bottom
    {
        type            externalWallHeatFluxTemperature;
        kappaMethod     solidThermo;
        mode            flux;
        q               100000;
        value           $internalField;

    }

    sides
    {
        type    zeroGradient;
    }

    solid_to_fluid
    {
        type            compressible::turbulentTemperatureCoupledBaffleMixed;
        Tnbr            T;
        kappaMethod     solidThermo;
        value           uniform 373.15;
    }
}

// ************************************************************************* //
